unknown system                          
            1
     5.610185    0.000000    0.000000
     2.805093    4.858563    0.000000
     0.000000    0.000000   14.580697
   Pt   H    O 
    12     2     1
Direct configuration=     1
   0.16666667  0.16666667  0.34291913
   0.66666667  0.16666667  0.34291913
   0.16666667  0.66666667  0.34291913
   0.66666667  0.66666667  0.34291913
   0.83333333  0.33333333  0.50000000
   0.33333333  0.33333333  0.50000000
   0.83333333  0.83333333  0.50000000
   0.33333333  0.83333333  0.50000000
   0.00000000  0.00000000  0.65708087
   0.50000000  0.00000000  0.65708087
   0.00000000  0.50000000  0.65708087
   0.50000000  0.50000000  0.65708087
   0.43505581  0.39874920  0.82511124
   0.47779731  0.64865249  0.82511124
   0.57776638  0.44869235  0.82511124
Direct configuration=     2
   0.16666667  0.16666667  0.34291913
   0.66666667  0.16666667  0.34291913
   0.16666667  0.66666667  0.34291913
   0.66666667  0.66666667  0.34291913
   0.83333333  0.33333333  0.50000000
   0.33333333  0.33333333  0.50000000
   0.83333333  0.83333333  0.50000000
   0.33333333  0.83333333  0.50000000
   0.00000000  0.00000000  0.65708087
   0.50000000  0.00000000  0.65708087
   0.00000000  0.50000000  0.65708087
   0.50000000  0.50000000  0.65708087
   0.43210821  0.39712141  0.82573243
   0.47590516  0.65331149  0.82577574
   0.57995892  0.44739194  0.82481806
Direct configuration=     3
   0.16666667  0.16666667  0.34291913
   0.66666667  0.16666667  0.34291913
   0.16666667  0.66666667  0.34291913
   0.66666667  0.66666667  0.34291913
   0.83333333  0.33333333  0.50000000
   0.33333333  0.33333333  0.50000000
   0.83333333  0.83333333  0.50000000
   0.33333333  0.83333333  0.50000000
   0.00000000  0.00000000  0.65708087
   0.50000000  0.00000000  0.65708087
   0.00000000  0.50000000  0.65708087
   0.50000000  0.50000000  0.65708087
   0.43401834  0.39817626  0.82532988
   0.47713133  0.65029231  0.82534512
   0.57853809  0.44823464  0.82500805
Direct configuration=     4
   0.16666667  0.16666667  0.34291913
   0.66666667  0.16666667  0.34291913
   0.16666667  0.66666667  0.34291913
   0.66666667  0.66666667  0.34291913
   0.83333333  0.33333333  0.50000000
   0.33333333  0.33333333  0.50000000
   0.83333333  0.83333333  0.50000000
   0.33333333  0.83333333  0.50000000
   0.00000000  0.00000000  0.65708087
   0.50000000  0.00000000  0.65708087
   0.00000000  0.50000000  0.65708087
   0.50000000  0.50000000  0.65708087
   0.43345653  0.39740984  0.82601766
   0.47688387  0.65163036  0.82608220
   0.57626632  0.44967623  0.82467918
Direct configuration=     5
   0.16666667  0.16666667  0.34291913
   0.66666667  0.16666667  0.34291913
   0.16666667  0.66666667  0.34291913
   0.66666667  0.66666667  0.34291913
   0.83333333  0.33333333  0.50000000
   0.33333333  0.33333333  0.50000000
   0.83333333  0.83333333  0.50000000
   0.33333333  0.83333333  0.50000000
   0.00000000  0.00000000  0.65708087
   0.50000000  0.00000000  0.65708087
   0.00000000  0.50000000  0.65708087
   0.50000000  0.50000000  0.65708087
   0.43188286  0.39526301  0.82794421
   0.47619070  0.65537836  0.82814683
   0.56990287  0.45371426  0.82375798
Direct configuration=     6
   0.16666667  0.16666667  0.34291913
   0.66666667  0.16666667  0.34291913
   0.16666667  0.66666667  0.34291913
   0.66666667  0.66666667  0.34291913
   0.83333333  0.33333333  0.50000000
   0.33333333  0.33333333  0.50000000
   0.83333333  0.83333333  0.50000000
   0.33333333  0.83333333  0.50000000
   0.00000000  0.00000000  0.65708087
   0.50000000  0.00000000  0.65708087
   0.00000000  0.50000000  0.65708087
   0.50000000  0.50000000  0.65708087
   0.43099455  0.39644500  0.82872634
   0.47515387  0.65535723  0.82898025
   0.56816767  0.45495984  0.82330866
Direct configuration=     7
   0.16666667  0.16666667  0.34291913
   0.66666667  0.16666667  0.34291913
   0.16666667  0.66666667  0.34291913
   0.66666667  0.66666667  0.34291913
   0.83333333  0.33333333  0.50000000
   0.33333333  0.33333333  0.50000000
   0.83333333  0.83333333  0.50000000
   0.33333333  0.83333333  0.50000000
   0.00000000  0.00000000  0.65708087
   0.50000000  0.00000000  0.65708087
   0.00000000  0.50000000  0.65708087
   0.50000000  0.50000000  0.65708087
   0.42832964  0.39999097  0.83107274
   0.47204339  0.65529385  0.83148053
   0.56296209  0.45869658  0.82196072
Direct configuration=     8
   0.16666667  0.16666667  0.34291913
   0.66666667  0.16666667  0.34291913
   0.16666667  0.66666667  0.34291913
   0.66666667  0.66666667  0.34291913
   0.83333333  0.33333333  0.50000000
   0.33333333  0.33333333  0.50000000
   0.83333333  0.83333333  0.50000000
   0.33333333  0.83333333  0.50000000
   0.00000000  0.00000000  0.65708087
   0.50000000  0.00000000  0.65708087
   0.00000000  0.50000000  0.65708087
   0.50000000  0.50000000  0.65708087
   0.42299981  0.40708291  0.83576552
   0.46582243  0.65516710  0.83648109
   0.55255093  0.46617006  0.81926483
Direct configuration=     9
   0.16666667  0.16666667  0.34291913
   0.66666667  0.16666667  0.34291913
   0.16666667  0.66666667  0.34291913
   0.66666667  0.66666667  0.34291913
   0.83333333  0.33333333  0.50000000
   0.33333333  0.33333333  0.50000000
   0.83333333  0.83333333  0.50000000
   0.33333333  0.83333333  0.50000000
   0.00000000  0.00000000  0.65708087
   0.50000000  0.00000000  0.65708087
   0.00000000  0.50000000  0.65708087
   0.50000000  0.50000000  0.65708087
   0.42604348  0.40303296  0.83308564
   0.46937500  0.65523948  0.83362546
   0.55849636  0.46190223  0.82080435
Direct configuration=    10
   0.16666667  0.16666667  0.34291913
   0.66666667  0.16666667  0.34291913
   0.16666667  0.66666667  0.34291913
   0.66666667  0.66666667  0.34291913
   0.83333333  0.33333333  0.50000000
   0.33333333  0.33333333  0.50000000
   0.83333333  0.83333333  0.50000000
   0.33333333  0.83333333  0.50000000
   0.00000000  0.00000000  0.65708087
   0.50000000  0.00000000  0.65708087
   0.00000000  0.50000000  0.65708087
   0.50000000  0.50000000  0.65708087
   0.42576398  0.40331381  0.83328498
   0.46903257  0.65539874  0.83384386
   0.55818790  0.46207320  0.82068080
Direct configuration=    11
   0.16666667  0.16666667  0.34291913
   0.66666667  0.16666667  0.34291913
   0.16666667  0.66666667  0.34291913
   0.66666667  0.66666667  0.34291913
   0.83333333  0.33333333  0.50000000
   0.33333333  0.33333333  0.50000000
   0.83333333  0.83333333  0.50000000
   0.33333333  0.83333333  0.50000000
   0.00000000  0.00000000  0.65708087
   0.50000000  0.00000000  0.65708087
   0.00000000  0.50000000  0.65708087
   0.50000000  0.50000000  0.65708087
   0.42492547  0.40415637  0.83388299
   0.46800529  0.65587649  0.83449906
   0.55726250  0.46258612  0.82031013
Direct configuration=    12
   0.16666667  0.16666667  0.34291913
   0.66666667  0.16666667  0.34291913
   0.16666667  0.66666667  0.34291913
   0.66666667  0.66666667  0.34291913
   0.83333333  0.33333333  0.50000000
   0.33333333  0.33333333  0.50000000
   0.83333333  0.83333333  0.50000000
   0.33333333  0.83333333  0.50000000
   0.00000000  0.00000000  0.65708087
   0.50000000  0.00000000  0.65708087
   0.00000000  0.50000000  0.65708087
   0.50000000  0.50000000  0.65708087
   0.42324846  0.40584148  0.83507902
   0.46595073  0.65683201  0.83580946
   0.55541171  0.46361196  0.81956880
Direct configuration=    13
   0.16666667  0.16666667  0.34291913
   0.66666667  0.16666667  0.34291913
   0.16666667  0.66666667  0.34291913
   0.66666667  0.66666667  0.34291913
   0.83333333  0.33333333  0.50000000
   0.33333333  0.33333333  0.50000000
   0.83333333  0.83333333  0.50000000
   0.33333333  0.83333333  0.50000000
   0.00000000  0.00000000  0.65708087
   0.50000000  0.00000000  0.65708087
   0.00000000  0.50000000  0.65708087
   0.50000000  0.50000000  0.65708087
   0.41989444  0.40921171  0.83747108
   0.46184161  0.65874303  0.83843026
   0.55171013  0.46566365  0.81808613
Direct configuration=    14
   0.16666667  0.16666667  0.34291913
   0.66666667  0.16666667  0.34291913
   0.16666667  0.66666667  0.34291913
   0.66666667  0.66666667  0.34291913
   0.83333333  0.33333333  0.50000000
   0.33333333  0.33333333  0.50000000
   0.83333333  0.83333333  0.50000000
   0.33333333  0.83333333  0.50000000
   0.00000000  0.00000000  0.65708087
   0.50000000  0.00000000  0.65708087
   0.00000000  0.50000000  0.65708087
   0.50000000  0.50000000  0.65708087
   0.42265010  0.40644274  0.83550577
   0.46521765  0.65717294  0.83627702
   0.55475134  0.46397799  0.81930429
Direct configuration=    15
   0.16666667  0.16666667  0.34291913
   0.66666667  0.16666667  0.34291913
   0.16666667  0.66666667  0.34291913
   0.66666667  0.66666667  0.34291913
   0.83333333  0.33333333  0.50000000
   0.33333333  0.33333333  0.50000000
   0.83333333  0.83333333  0.50000000
   0.33333333  0.83333333  0.50000000
   0.00000000  0.00000000  0.65708087
   0.50000000  0.00000000  0.65708087
   0.00000000  0.50000000  0.65708087
   0.50000000  0.50000000  0.65708087
   0.42253605  0.40655734  0.83558711
   0.46507793  0.65723792  0.83636613
   0.55462548  0.46404775  0.81925387
Direct configuration=    16
   0.16666667  0.16666667  0.34291913
   0.66666667  0.16666667  0.34291913
   0.16666667  0.66666667  0.34291913
   0.66666667  0.66666667  0.34291913
   0.83333333  0.33333333  0.50000000
   0.33333333  0.33333333  0.50000000
   0.83333333  0.83333333  0.50000000
   0.33333333  0.83333333  0.50000000
   0.00000000  0.00000000  0.65708087
   0.50000000  0.00000000  0.65708087
   0.00000000  0.50000000  0.65708087
   0.50000000  0.50000000  0.65708087
   0.42260282  0.40633575  0.83548736
   0.46519102  0.65735853  0.83626256
   0.55482467  0.46389840  0.81933316
Direct configuration=    17
   0.16666667  0.16666667  0.34291913
   0.66666667  0.16666667  0.34291913
   0.16666667  0.66666667  0.34291913
   0.66666667  0.66666667  0.34291913
   0.83333333  0.33333333  0.50000000
   0.33333333  0.33333333  0.50000000
   0.83333333  0.83333333  0.50000000
   0.33333333  0.83333333  0.50000000
   0.00000000  0.00000000  0.65708087
   0.50000000  0.00000000  0.65708087
   0.00000000  0.50000000  0.65708087
   0.50000000  0.50000000  0.65708087
   0.42280311  0.40567097  0.83518811
   0.46553030  0.65772036  0.83595186
   0.55542224  0.46345035  0.81957103
Direct configuration=    18
   0.16666667  0.16666667  0.34291913
   0.66666667  0.16666667  0.34291913
   0.16666667  0.66666667  0.34291913
   0.66666667  0.66666667  0.34291913
   0.83333333  0.33333333  0.50000000
   0.33333333  0.33333333  0.50000000
   0.83333333  0.83333333  0.50000000
   0.33333333  0.83333333  0.50000000
   0.00000000  0.00000000  0.65708087
   0.50000000  0.00000000  0.65708087
   0.00000000  0.50000000  0.65708087
   0.50000000  0.50000000  0.65708087
   0.42320370  0.40434143  0.83458960
   0.46620884  0.65844402  0.83533044
   0.55661739  0.46255425  0.82004676
Direct configuration=    19
   0.16666667  0.16666667  0.34291913
   0.66666667  0.16666667  0.34291913
   0.16666667  0.66666667  0.34291913
   0.66666667  0.66666667  0.34291913
   0.83333333  0.33333333  0.50000000
   0.33333333  0.33333333  0.50000000
   0.83333333  0.83333333  0.50000000
   0.33333333  0.83333333  0.50000000
   0.00000000  0.00000000  0.65708087
   0.50000000  0.00000000  0.65708087
   0.00000000  0.50000000  0.65708087
   0.50000000  0.50000000  0.65708087
   0.42310033  0.40436570  0.83459731
   0.46614024  0.65849646  0.83533666
   0.55650425  0.46266262  0.82009891
Direct configuration=    20
   0.16666667  0.16666667  0.34291913
   0.66666667  0.16666667  0.34291913
   0.16666667  0.66666667  0.34291913
   0.66666667  0.66666667  0.34291913
   0.83333333  0.33333333  0.50000000
   0.33333333  0.33333333  0.50000000
   0.83333333  0.83333333  0.50000000
   0.33333333  0.83333333  0.50000000
   0.00000000  0.00000000  0.65708087
   0.50000000  0.00000000  0.65708087
   0.00000000  0.50000000  0.65708087
   0.50000000  0.50000000  0.65708087
   0.42279022  0.40443850  0.83462043
   0.46593443  0.65865381  0.83535533
   0.55616483  0.46298773  0.82025537
Direct configuration=    21
   0.16666667  0.16666667  0.34291913
   0.66666667  0.16666667  0.34291913
   0.16666667  0.66666667  0.34291913
   0.66666667  0.66666667  0.34291913
   0.83333333  0.33333333  0.50000000
   0.33333333  0.33333333  0.50000000
   0.83333333  0.83333333  0.50000000
   0.33333333  0.83333333  0.50000000
   0.00000000  0.00000000  0.65708087
   0.50000000  0.00000000  0.65708087
   0.00000000  0.50000000  0.65708087
   0.50000000  0.50000000  0.65708087
   0.42217000  0.40458411  0.83466668
   0.46552280  0.65896849  0.83539265
   0.55548598  0.46363795  0.82056828
Direct configuration=    22
   0.16666667  0.16666667  0.34291913
   0.66666667  0.16666667  0.34291913
   0.16666667  0.66666667  0.34291913
   0.66666667  0.66666667  0.34291913
   0.83333333  0.33333333  0.50000000
   0.33333333  0.33333333  0.50000000
   0.83333333  0.83333333  0.50000000
   0.33333333  0.83333333  0.50000000
   0.00000000  0.00000000  0.65708087
   0.50000000  0.00000000  0.65708087
   0.00000000  0.50000000  0.65708087
   0.50000000  0.50000000  0.65708087
   0.42092955  0.40487531  0.83475917
   0.46469956  0.65959787  0.83546730
   0.55412830  0.46493841  0.82119410
Direct configuration=    23
   0.16666667  0.16666667  0.34291913
   0.66666667  0.16666667  0.34291913
   0.16666667  0.66666667  0.34291913
   0.66666667  0.66666667  0.34291913
   0.83333333  0.33333333  0.50000000
   0.33333333  0.33333333  0.50000000
   0.83333333  0.83333333  0.50000000
   0.33333333  0.83333333  0.50000000
   0.00000000  0.00000000  0.65708087
   0.50000000  0.00000000  0.65708087
   0.00000000  0.50000000  0.65708087
   0.50000000  0.50000000  0.65708087
   0.42172280  0.40468909  0.83470002
   0.46522601  0.65919539  0.83541956
   0.55499652  0.46410678  0.82079389
Direct configuration=    24
   0.16666667  0.16666667  0.34291913
   0.66666667  0.16666667  0.34291913
   0.16666667  0.66666667  0.34291913
   0.66666667  0.66666667  0.34291913
   0.83333333  0.33333333  0.50000000
   0.33333333  0.33333333  0.50000000
   0.83333333  0.83333333  0.50000000
   0.33333333  0.83333333  0.50000000
   0.00000000  0.00000000  0.65708087
   0.50000000  0.00000000  0.65708087
   0.00000000  0.50000000  0.65708087
   0.50000000  0.50000000  0.65708087
   0.42167951  0.40470641  0.83470326
   0.46518203  0.65924007  0.83542435
   0.55495301  0.46412951  0.82081577
Direct configuration=    25
   0.16666667  0.16666667  0.34291913
   0.66666667  0.16666667  0.34291913
   0.16666667  0.66666667  0.34291913
   0.66666667  0.66666667  0.34291913
   0.83333333  0.33333333  0.50000000
   0.33333333  0.33333333  0.50000000
   0.83333333  0.83333333  0.50000000
   0.33333333  0.83333333  0.50000000
   0.00000000  0.00000000  0.65708087
   0.50000000  0.00000000  0.65708087
   0.00000000  0.50000000  0.65708087
   0.50000000  0.50000000  0.65708087
   0.42154962  0.40475838  0.83471297
   0.46505009  0.65937412  0.83543870
   0.55482249  0.46419771  0.82088141
Direct configuration=    26
   0.16666667  0.16666667  0.34291913
   0.66666667  0.16666667  0.34291913
   0.16666667  0.66666667  0.34291913
   0.66666667  0.66666667  0.34291913
   0.83333333  0.33333333  0.50000000
   0.33333333  0.33333333  0.50000000
   0.83333333  0.83333333  0.50000000
   0.33333333  0.83333333  0.50000000
   0.00000000  0.00000000  0.65708087
   0.50000000  0.00000000  0.65708087
   0.00000000  0.50000000  0.65708087
   0.50000000  0.50000000  0.65708087
   0.42128986  0.40486232  0.83473239
   0.46478620  0.65964221  0.83546740
   0.55456145  0.46433410  0.82101267
Direct configuration=    27
   0.16666667  0.16666667  0.34291913
   0.66666667  0.16666667  0.34291913
   0.16666667  0.66666667  0.34291913
   0.66666667  0.66666667  0.34291913
   0.83333333  0.33333333  0.50000000
   0.33333333  0.33333333  0.50000000
   0.83333333  0.83333333  0.50000000
   0.33333333  0.83333333  0.50000000
   0.00000000  0.00000000  0.65708087
   0.50000000  0.00000000  0.65708087
   0.00000000  0.50000000  0.65708087
   0.50000000  0.50000000  0.65708087
   0.42077034  0.40507019  0.83477124
   0.46425843  0.66017838  0.83552481
   0.55403936  0.46460687  0.82127521
Direct configuration=    28
   0.16666667  0.16666667  0.34291913
   0.66666667  0.16666667  0.34291913
   0.16666667  0.66666667  0.34291913
   0.66666667  0.66666667  0.34291913
   0.83333333  0.33333333  0.50000000
   0.33333333  0.33333333  0.50000000
   0.83333333  0.83333333  0.50000000
   0.33333333  0.83333333  0.50000000
   0.00000000  0.00000000  0.65708087
   0.50000000  0.00000000  0.65708087
   0.00000000  0.50000000  0.65708087
   0.50000000  0.50000000  0.65708087
   0.41973129  0.40548593  0.83484893
   0.46320289  0.66125074  0.83563963
   0.55299519  0.46515243  0.82180029
Direct configuration=    29
   0.16666667  0.16666667  0.34291913
   0.66666667  0.16666667  0.34291913
   0.16666667  0.66666667  0.34291913
   0.66666667  0.66666667  0.34291913
   0.83333333  0.33333333  0.50000000
   0.33333333  0.33333333  0.50000000
   0.83333333  0.83333333  0.50000000
   0.33333333  0.83333333  0.50000000
   0.00000000  0.00000000  0.65708087
   0.50000000  0.00000000  0.65708087
   0.00000000  0.50000000  0.65708087
   0.50000000  0.50000000  0.65708087
   0.41765320  0.40631742  0.83500432
   0.46109180  0.66339545  0.83586927
   0.55090685  0.46624353  0.82285044
Direct configuration=    30
   0.16666667  0.16666667  0.34291913
   0.66666667  0.16666667  0.34291913
   0.16666667  0.66666667  0.34291913
   0.66666667  0.66666667  0.34291913
   0.83333333  0.33333333  0.50000000
   0.33333333  0.33333333  0.50000000
   0.83333333  0.83333333  0.50000000
   0.33333333  0.83333333  0.50000000
   0.00000000  0.00000000  0.65708087
   0.50000000  0.00000000  0.65708087
   0.00000000  0.50000000  0.65708087
   0.50000000  0.50000000  0.65708087
   0.41349700  0.40798040  0.83531509
   0.45686962  0.66768487  0.83632855
   0.54673017  0.46842574  0.82495074
Direct configuration=    31
   0.16666667  0.16666667  0.34291913
   0.66666667  0.16666667  0.34291913
   0.16666667  0.66666667  0.34291913
   0.66666667  0.66666667  0.34291913
   0.83333333  0.33333333  0.50000000
   0.33333333  0.33333333  0.50000000
   0.83333333  0.83333333  0.50000000
   0.33333333  0.83333333  0.50000000
   0.00000000  0.00000000  0.65708087
   0.50000000  0.00000000  0.65708087
   0.00000000  0.50000000  0.65708087
   0.50000000  0.50000000  0.65708087
   0.41649830  0.40677952  0.83509067
   0.45991856  0.66458737  0.83599689
   0.54974626  0.46684991  0.82343406
Direct configuration=    32
   0.16666667  0.16666667  0.34291913
   0.66666667  0.16666667  0.34291913
   0.16666667  0.66666667  0.34291913
   0.66666667  0.66666667  0.34291913
   0.83333333  0.33333333  0.50000000
   0.33333333  0.33333333  0.50000000
   0.83333333  0.83333333  0.50000000
   0.33333333  0.83333333  0.50000000
   0.00000000  0.00000000  0.65708087
   0.50000000  0.00000000  0.65708087
   0.00000000  0.50000000  0.65708087
   0.50000000  0.50000000  0.65708087
   0.41526592  0.40746285  0.83520169
   0.45877624  0.66532256  0.83611940
   0.54917243  0.46734126  0.82383188
Direct configuration=    33
   0.16666667  0.16666667  0.34291913
   0.66666667  0.16666667  0.34291913
   0.16666667  0.66666667  0.34291913
   0.66666667  0.66666667  0.34291913
   0.83333333  0.33333333  0.50000000
   0.33333333  0.33333333  0.50000000
   0.83333333  0.83333333  0.50000000
   0.33333333  0.83333333  0.50000000
   0.00000000  0.00000000  0.65708087
   0.50000000  0.00000000  0.65708087
   0.00000000  0.50000000  0.65708087
   0.50000000  0.50000000  0.65708087
   0.41163973  0.40947352  0.83552836
   0.45541500  0.66748580  0.83647988
   0.54748396  0.46878702  0.82500245
Direct configuration=    34
   0.16666667  0.16666667  0.34291913
   0.66666667  0.16666667  0.34291913
   0.16666667  0.66666667  0.34291913
   0.66666667  0.66666667  0.34291913
   0.83333333  0.33333333  0.50000000
   0.33333333  0.33333333  0.50000000
   0.83333333  0.83333333  0.50000000
   0.33333333  0.83333333  0.50000000
   0.00000000  0.00000000  0.65708087
   0.50000000  0.00000000  0.65708087
   0.00000000  0.50000000  0.65708087
   0.50000000  0.50000000  0.65708087
   0.40995267  0.41040897  0.83568034
   0.45385121  0.66849224  0.83664759
   0.54669842  0.46945965  0.82554705
Direct configuration=    35
   0.16666667  0.16666667  0.34291913
   0.66666667  0.16666667  0.34291913
   0.16666667  0.66666667  0.34291913
   0.66666667  0.66666667  0.34291913
   0.83333333  0.33333333  0.50000000
   0.33333333  0.33333333  0.50000000
   0.83333333  0.83333333  0.50000000
   0.33333333  0.83333333  0.50000000
   0.00000000  0.00000000  0.65708087
   0.50000000  0.00000000  0.65708087
   0.00000000  0.50000000  0.65708087
   0.50000000  0.50000000  0.65708087
   0.40920390  0.41101391  0.83575260
   0.45304351  0.66890978  0.83673346
   0.54619593  0.46976907  0.82581567
Direct configuration=    36
   0.16666667  0.16666667  0.34291913
   0.66666667  0.16666667  0.34291913
   0.16666667  0.66666667  0.34291913
   0.66666667  0.66666667  0.34291913
   0.83333333  0.33333333  0.50000000
   0.33333333  0.33333333  0.50000000
   0.83333333  0.83333333  0.50000000
   0.33333333  0.83333333  0.50000000
   0.00000000  0.00000000  0.65708087
   0.50000000  0.00000000  0.65708087
   0.00000000  0.50000000  0.65708087
   0.50000000  0.50000000  0.65708087
   0.40695760  0.41282875  0.83596940
   0.45062039  0.67016239  0.83699105
   0.54468849  0.47069735  0.82662154
Direct configuration=    37
   0.16666667  0.16666667  0.34291913
   0.66666667  0.16666667  0.34291913
   0.16666667  0.66666667  0.34291913
   0.66666667  0.66666667  0.34291913
   0.83333333  0.33333333  0.50000000
   0.33333333  0.33333333  0.50000000
   0.83333333  0.83333333  0.50000000
   0.33333333  0.83333333  0.50000000
   0.00000000  0.00000000  0.65708087
   0.50000000  0.00000000  0.65708087
   0.00000000  0.50000000  0.65708087
   0.50000000  0.50000000  0.65708087
   0.40246499  0.41645843  0.83640298
   0.44577414  0.67266762  0.83750623
   0.54167360  0.47255391  0.82823327
Direct configuration=    38
   0.16666667  0.16666667  0.34291913
   0.66666667  0.16666667  0.34291913
   0.16666667  0.66666667  0.34291913
   0.66666667  0.66666667  0.34291913
   0.83333333  0.33333333  0.50000000
   0.33333333  0.33333333  0.50000000
   0.83333333  0.83333333  0.50000000
   0.33333333  0.83333333  0.50000000
   0.00000000  0.00000000  0.65708087
   0.50000000  0.00000000  0.65708087
   0.00000000  0.50000000  0.65708087
   0.50000000  0.50000000  0.65708087
   0.39347978  0.42371778  0.83727016
   0.43608166  0.67767808  0.83853660
   0.53564381  0.47626702  0.83145674
Direct configuration=    39
   0.16666667  0.16666667  0.34291913
   0.66666667  0.16666667  0.34291913
   0.16666667  0.66666667  0.34291913
   0.66666667  0.66666667  0.34291913
   0.83333333  0.33333333  0.50000000
   0.33333333  0.33333333  0.50000000
   0.83333333  0.83333333  0.50000000
   0.33333333  0.83333333  0.50000000
   0.00000000  0.00000000  0.65708087
   0.50000000  0.00000000  0.65708087
   0.00000000  0.50000000  0.65708087
   0.50000000  0.50000000  0.65708087
   0.39324839  0.42432035  0.83732970
   0.43580360  0.67729531  0.83859082
   0.53441091  0.47716085  0.83160065
Direct configuration=    40
   0.16666667  0.16666667  0.34291913
   0.66666667  0.16666667  0.34291913
   0.16666667  0.66666667  0.34291913
   0.66666667  0.66666667  0.34291913
   0.83333333  0.33333333  0.50000000
   0.33333333  0.33333333  0.50000000
   0.83333333  0.83333333  0.50000000
   0.33333333  0.83333333  0.50000000
   0.00000000  0.00000000  0.65708087
   0.50000000  0.00000000  0.65708087
   0.00000000  0.50000000  0.65708087
   0.50000000  0.50000000  0.65708087
   0.39321975  0.42439494  0.83733707
   0.43576918  0.67724793  0.83859753
   0.53425829  0.47727150  0.83161847
Direct configuration=    41
   0.16666667  0.16666667  0.34291913
   0.66666667  0.16666667  0.34291913
   0.16666667  0.66666667  0.34291913
   0.66666667  0.66666667  0.34291913
   0.83333333  0.33333333  0.50000000
   0.33333333  0.33333333  0.50000000
   0.83333333  0.83333333  0.50000000
   0.33333333  0.83333333  0.50000000
   0.00000000  0.00000000  0.65708087
   0.50000000  0.00000000  0.65708087
   0.00000000  0.50000000  0.65708087
   0.50000000  0.50000000  0.65708087
   0.39306466  0.42452651  0.83737355
   0.43558704  0.67735945  0.83863168
   0.53403673  0.47737368  0.83154894
Direct configuration=    42
   0.16666667  0.16666667  0.34291913
   0.66666667  0.16666667  0.34291913
   0.16666667  0.66666667  0.34291913
   0.66666667  0.66666667  0.34291913
   0.83333333  0.33333333  0.50000000
   0.33333333  0.33333333  0.50000000
   0.83333333  0.83333333  0.50000000
   0.33333333  0.83333333  0.50000000
   0.00000000  0.00000000  0.65708087
   0.50000000  0.00000000  0.65708087
   0.00000000  0.50000000  0.65708087
   0.50000000  0.50000000  0.65708087
   0.39259940  0.42492121  0.83748298
   0.43504063  0.67769400  0.83873415
   0.53337202  0.47768022  0.83134037
Direct configuration=    43
   0.16666667  0.16666667  0.34291913
   0.66666667  0.16666667  0.34291913
   0.16666667  0.66666667  0.34291913
   0.66666667  0.66666667  0.34291913
   0.83333333  0.33333333  0.50000000
   0.33333333  0.33333333  0.50000000
   0.83333333  0.83333333  0.50000000
   0.33333333  0.83333333  0.50000000
   0.00000000  0.00000000  0.65708087
   0.50000000  0.00000000  0.65708087
   0.00000000  0.50000000  0.65708087
   0.50000000  0.50000000  0.65708087
   0.39166888  0.42571060  0.83770185
   0.43394780  0.67836310  0.83893909
   0.53204262  0.47829330  0.83092323
Direct configuration=    44
   0.16666667  0.16666667  0.34291913
   0.66666667  0.16666667  0.34291913
   0.16666667  0.66666667  0.34291913
   0.66666667  0.66666667  0.34291913
   0.83333333  0.33333333  0.50000000
   0.33333333  0.33333333  0.50000000
   0.83333333  0.83333333  0.50000000
   0.33333333  0.83333333  0.50000000
   0.00000000  0.00000000  0.65708087
   0.50000000  0.00000000  0.65708087
   0.00000000  0.50000000  0.65708087
   0.50000000  0.50000000  0.65708087
   0.38980784  0.42728940  0.83813958
   0.43176214  0.67970130  0.83934895
   0.52938382  0.47951946  0.83008894
Direct configuration=    45
   0.16666667  0.16666667  0.34291913
   0.66666667  0.16666667  0.34291913
   0.16666667  0.66666667  0.34291913
   0.66666667  0.66666667  0.34291913
   0.83333333  0.33333333  0.50000000
   0.33333333  0.33333333  0.50000000
   0.83333333  0.83333333  0.50000000
   0.33333333  0.83333333  0.50000000
   0.00000000  0.00000000  0.65708087
   0.50000000  0.00000000  0.65708087
   0.00000000  0.50000000  0.65708087
   0.50000000  0.50000000  0.65708087
   0.38975882  0.42731957  0.83814945
   0.43171855  0.67972377  0.83935735
   0.52932974  0.47955750  0.83007047
Direct configuration=    46
   0.16666667  0.16666667  0.34291913
   0.66666667  0.16666667  0.34291913
   0.16666667  0.66666667  0.34291913
   0.66666667  0.66666667  0.34291913
   0.83333333  0.33333333  0.50000000
   0.33333333  0.33333333  0.50000000
   0.83333333  0.83333333  0.50000000
   0.33333333  0.83333333  0.50000000
   0.00000000  0.00000000  0.65708087
   0.50000000  0.00000000  0.65708087
   0.00000000  0.50000000  0.65708087
   0.50000000  0.50000000  0.65708087
   0.38961175  0.42741010  0.83817907
   0.43158779  0.67979118  0.83938254
   0.52916748  0.47967165  0.83001506
Direct configuration=    47
   0.16666667  0.16666667  0.34291913
   0.66666667  0.16666667  0.34291913
   0.16666667  0.66666667  0.34291913
   0.66666667  0.66666667  0.34291913
   0.83333333  0.33333333  0.50000000
   0.33333333  0.33333333  0.50000000
   0.83333333  0.83333333  0.50000000
   0.33333333  0.83333333  0.50000000
   0.00000000  0.00000000  0.65708087
   0.50000000  0.00000000  0.65708087
   0.00000000  0.50000000  0.65708087
   0.50000000  0.50000000  0.65708087
   0.38931762  0.42759114  0.83823830
   0.43132627  0.67992601  0.83943291
   0.52884297  0.47989994  0.82990424
Direct configuration=    48
   0.16666667  0.16666667  0.34291913
   0.66666667  0.16666667  0.34291913
   0.16666667  0.66666667  0.34291913
   0.66666667  0.66666667  0.34291913
   0.83333333  0.33333333  0.50000000
   0.33333333  0.33333333  0.50000000
   0.83333333  0.83333333  0.50000000
   0.33333333  0.83333333  0.50000000
   0.00000000  0.00000000  0.65708087
   0.50000000  0.00000000  0.65708087
   0.00000000  0.50000000  0.65708087
   0.50000000  0.50000000  0.65708087
   0.38872937  0.42795322  0.83835677
   0.43080323  0.68019565  0.83953366
   0.52819395  0.48035653  0.82968259
Direct configuration=    49
   0.16666667  0.16666667  0.34291913
   0.66666667  0.16666667  0.34291913
   0.16666667  0.66666667  0.34291913
   0.66666667  0.66666667  0.34291913
   0.83333333  0.33333333  0.50000000
   0.33333333  0.33333333  0.50000000
   0.83333333  0.83333333  0.50000000
   0.33333333  0.83333333  0.50000000
   0.00000000  0.00000000  0.65708087
   0.50000000  0.00000000  0.65708087
   0.00000000  0.50000000  0.65708087
   0.50000000  0.50000000  0.65708087
   0.38755285  0.42867739  0.83859370
   0.42975715  0.68073495  0.83973516
   0.52689592  0.48126970  0.82923930
Direct configuration=    50
   0.16666667  0.16666667  0.34291913
   0.66666667  0.16666667  0.34291913
   0.16666667  0.66666667  0.34291913
   0.66666667  0.66666667  0.34291913
   0.83333333  0.33333333  0.50000000
   0.33333333  0.33333333  0.50000000
   0.83333333  0.83333333  0.50000000
   0.33333333  0.83333333  0.50000000
   0.00000000  0.00000000  0.65708087
   0.50000000  0.00000000  0.65708087
   0.00000000  0.50000000  0.65708087
   0.50000000  0.50000000  0.65708087